<VTKFile byte_order="LittleEndian" type="PolyData" version="0.1">
            <PolyData>
                <Piece NumberOfLines="613" NumberOfPoints="372">
                    <Points>
                    <DataArray Name="coords" NumberOfComponents="3" type="Float64">0.0003293242	0.0006372758	0.0003996276	0.0007304208	0.000507466	0.0001169248	0.0007915943	0.0001878847	0.0004418628	0.0005740731	0.0007969159	0.0002561277	0.0007143294	0.0003886297	0.0004126428	0.0002484209	0.0008579211	0.0005846873	0.0004716108	0.0006352812	0.0001957779	0.000557708	0.0003645683	0.0003517014	0.0007186801	0.000589122	0.000531231	0.0005678868	8.40087e-05	0.0002731337	0.0008108777	0.0008018842	3.828745e-05	0.0001414094	0.0008655036	0.0006465174	0.0008585824	0.0003447255	0.0006173489	0.0005892044	0.0003443852	0.0001221371	7.585789e-05	0.0001777747	0.0002016225	0.0002511895	0.0004478934	0.0007923673	0.0001074358	0.000800749	0.000588414	7.234513e-06	0.0008811333	0.0003903485	0.0002630787	0.0004094029	0.000539438	0.000133422	7.15642e-05	0.0002267837	3.7285e-06	0.0007866403	0.0006175499	0.0009045138	0.0007859923	0.0008030627	0.00091469	0.0004321981	0.0003670298	1.79e-06	0.000548623	0.0005333842	0.0003242673	0.0003785357	0.0007996947	0.0004239901	0.0006294151	0.0006214457	0.00021653	0.0008141546	0.0004704944	6.547566e-05	0.000374598	0.0001271757	0.0002781307	3.019447e-05	0.0002667076	0.00091469	0.0001588726	0.0007135118	0.0001210736	0.0003006842	0.0007034721	0.0005383753	7.24021e-05	0.0008681674	0.0006046677	0.0008354458	0.0006967682	0.0005859271	0.0002098405	0.0006580583	0.0004181503	0.0001956036	0.0005091144	0.000298247	0.0004884989	0.0006817789	0.0003704534	0.0003876493	0.0003235692	0.0004101895	0.000693065	0.0007715729	0.0008596122	0.0007751629	0.0004525175	1.79e-06	2.692459e-05	0.0004703308	0.0002030475	0.0001011275	0.0004379577	0.0003560693	0.0001273866	0.0003691523	0.0009004871	0.0006430603	0.0004850353	1.79e-06	0.000557212	0.000384328	0.000732285	0.0005454744	0.0008219328	9.844958e-05	0.0003134583	0.0003231714	0.0005975651	8.157919e-05	0.0008000394	0.0001398642	0.0001545671	0.0004458367	0.0003337405	0.0005245455	2.86758e-05	0.000356778	0.0002819344	0.0004526507	0.0005202117	0.0006709629	0.0005932893	0.000396439	0.0003270425	0.000502981	0.0004611731	0.0005752602	0.0007470282	0.0002062669	0.0001226475	0.0006758282	0.0002924745	0.0002072814	2.321393e-05	5.01558e-05	0.0008699042	0.0004976558	7.028395e-05	0.0006696763	0.0004410493	0.000893675	3.381958e-05	0.0005093506	0.0003773466	0.000778027	0.0007123842	9.851988e-05	0.0008732279	0.0002119292	0.0002910787	0.000109325	0.0008233642	0.0008429463	0.0005784306	0.0006228842	0.0004531472	0.0005415248	4.14563e-05	1.810727e-05	0.0001490677	8.474475e-05	8.511297e-06	0.0003472242	4.146408e-05	0.0001274334	0.0001414138	0.000893804	0.0007396165	0.000578635	0.0003093348	0.00091469	0.0002958387	0.0001905582	0.0003378324	0.0008938097	0.0004265351	2.635926e-05	0.0006609317	0.0002735744	0.0007535044	0.0007033867	0.0007768242	0.0003991703	0.0008144422	0.000865044	9.73036e-05	0.0004564461	0.0004224758	0.00091469	0.0002814424	0.0001193861	0.0001372267	0.0006467905	0.0005936986	0.0002268184	0.0008937739	0.0007231958	0.0003523821	0.0007041898	0.0007135301	0.0005841747	0.0007784045	0.0004018849	0.000478034	0.0005516729	0.0003349914	0.0007995126	0.0003095958	0.0008939301	0.0004742192	2.016468e-05	0.0006534997	0.0004009242	0.0008671555	3.532111e-05	3.461129e-05	1.999258e-05	0.000559023	0.0007281906	0.000809827	0.0006801642	0.0004303032	0.0004031644	3.708941e-05	0.0009007277	0.0008961786	0.0003558048	0.0001370193	0.0001523208	0.0003746238	3.121579e-05	4.116429e-05	0.0003086833	0.0006025058	0.0007571669	0.0008639695	0.0003454814	0.0003014923	0.0003253206	0.0006128769	0.0007690054	0.0001204964	7.16358e-05	0.0006444358	0.0008663958	0.0001091944	0.0004693309	0.0005704552	0.0002278501	0.0003000797	0.0006171782	0.000738991	0.0001112673	6.294782e-05	8.296265e-05	0.00023807	0.0008968476	0.0008317438	0.0002709062	0.000280862	0.00077463	8.043114e-05	0.0006753817	0.0006713331	0.000213418	0.000749806	0.0006142082	0.00019511	0.0001991545	0.0004492053	0.0001807905	0.0001158507	0.0005333842	0.0004605244	0.0001977113	0.0001953089	0.0008527358	0.0003286633	0.0006605153	0.0008520042	6.356218e-05	0.0004354242	0.0007589242	0.0007801523	0.0004890883	0.0005456637	0.0005386541	0.0007911442	0.0008966905	0.0006398523	0.0008989594	0.0001780768	9.111879e-05	0.0001521454	0.0007690683	0.0001054132	0.0001876207	0.000487942	0.0006820943	0.0002648842	0.0008363589	0.0008019558	0.0003318395	0.0008976331	0.0006740193	0.0006838158	0.0004070253	0.0006924068	0.0003042642	0.00075001	0.0001861242	0.0008072787	0.0001906655	0.0007733158	0.0003616158	0.0004603738	0.0004671696	0.0008327189	0.0003442128	0.0004608126	0.0001301055	0.0003772958	0.0008970057	0.0001209963	0.0008973872	9.586082e-05	0.0002934836	0.000265544	0.0008989168	0.0006416553	0.0005449672	1.642711e-05	2.182585e-05	1.636246e-05	7.91079e-05	4.688811e-05	0.0002452399	0.0005529238	1.79e-06	0.0008979968	0.00085741	0.0005333842	0.0001767726	0.0002089088	0.0004773409	0.0002599994	0.0008867458	0.0003092198	1.713938e-05	0.0007925452	0.0003436442	0.0007037683	4.615401e-05	0.0001879504	0.0003034429	7.673637e-05	4.845246e-05	0.0007159642	0.0003387707	0.0002165817	0.0002962827	0.0003380906	0.0003901842	1.624038e-05	0.0001416491	0.0007156225	0.0008663958	0.0003244319	0.0004351137	6.08242e-05	0.0004387775	0.0006573507	5.178675e-05	1.626471e-05	0.0005210173	0.000792962	1.647226e-05	0.0006537718	0.0006597786	0.0003883174	0.0003056504	0.0001991178	0.0006348976	1.79e-06	0.00040633	0.0003138732	3.94158e-05	0.0003530647	0.0004546242	8.300191e-06	0.0006003641	0.0001238107	1.79e-06	0.0008405947	0.0009000258	0.0006694242	0.0003616158	0.0007786805	0.000141186	0.0008091158	1.64759e-05	0.0005919487	0.0005847162	0.0008425632	0.0004922601	0.0004778992	0.0005656758	0.0002470558	0.0001871452	0.0002268011	1.79e-06	0.0007930958	0.0003380074	0.0006611133	0.00063273	0.0003042642	0.0004877959	0.0004712334	0.0006668333	0.0001618038	0.0003318515	0.0006101704	0.0005938926	0.0008854435	0.0001064861	4.388731e-05	0.0003272786	0.0008258068	0.0007967252	0.0001494747	0.0006746896	0.000791957	0.0006472146	0.0003158217	0.0005285039	0.0008376842	0.0005262242	0.0006565657	0.0008707143	0.0008718223	0.0002886747	0.0004063474	0.0003142606	0.0002453269	0.0002625301	0.0003042642	0.0008721278	2.786302e-05	0.0004180684	0.00091469	0.0001308753	0.0009001525	0.0007003751	0.0006105797	0.0006707009	0.0005284345	0.0009005988	0.0005996674	0.00091469	0.0003336438	0.0003380105	0.0009117687	5.67196e-05	0.0008169571	0.0003901842	0.0002705959	0.0002935242	0.0004677927	0.000895577	0.0006319888	0.0003953326	0.0006503883	1.55107e-05	1.205657e-05	0.0001017316	0.0006172455	0.0007885418	2.734129e-05	0.0003400642	0.0002590525	3.031399e-05	9.845305e-05	0.0006173128	0.0006818701	0.0007321063	7.87242e-05	0.0006551758	4.65042e-05	0.0004210319	0.0009007507	0.0001622663	0.00088963	0.0006929762	0.0001842566	0.0004772252	0.0001811688	0.0005990341	0.000399878	0.0004389303	0.0002347683	0.0005347251	0.0003807505	0.0009010871	1.79e-06	0.0004712049	0.0007881812	0.0003239914	0.0008807158	0.0001800444	0.0006658442	0.0001370737	0.0002597068	0.0007222066	0.0002778959	0.0002516551	0.0004895058	0.0008539914	0.0007036001	2.685848e-05	0.0001915397	0.0008241809	0.0002731376	0.0003125195	0.0001199306	0.0005423617	0.0001704799	0.0007212489	0.000405212	0.0009031879	0.0006444358	0.0008842242	0.0004331442	1.347997e-05	7.460309e-05	8.001393e-05	0.0003466707	0.0008595395	0.0008533479	0.0002162044	0.0004201905	0.0003286523	0.0001679188	0.0001298295	0.0002589256	0.0005864386	0.0007969716	0.0007375158	0.0006359747	0.0007345189	0.0001342608	0.0002515578	0.0001521414	0.000181322	0.0007394765	0.000753341	0.0001871622	0.0002920158	0.0008566248	0.0004951013	0.0006532377	0.0003881027	1.342487e-05	0.0004234969	0.000303432	0.0003948541	0.0002048309	0.0001969358	0.0003812804	1.897264e-05	0.0007031953	0.0003552711	0.0008568114	0.0001551097	0.0008240768	0.0007792003	0.0005629235	0.0006292131	0.0009030594	0.00061039	0.0001748107	0.0008958603	0.0007302842	1.367971e-05	8.23042e-05	7.757572e-05	0.0001002758	1.304151e-05	0.0006909042	8.94642e-05	0.0009038991	0.00091469	0.0009032241	0.000902025	0.0008136709	0.0003156478	5.667516e-05	0.0005154842	0.0005875316	0.0008642127	0.0003053061	0.0008609928	1.354103e-05	0.0003781514	0.0005174622	0.0008538108	0.0008834987	0.0006306477	0.0002583594	0.0002076758	0.0002426147	1.392479e-05	0.0006352856	0.0002625253	0.0008928182	0.0005572224	0.0004292661	0.0007348999	0.0008591642	0.0006213504	0.0001342453	0.0007204613	4.65042e-05	0.0007355692	0.0006362206	0.0006444358	8.399123e-05	6.45463e-05	0.0001610642	0.0005906642	0.0004439558	4.345557e-05	0.0009042683	0.0008648149	0.0001974814	0.0002312403	0.0007593891	0.0002245912	0.0007056361	0.0005820779	5.191218e-05	7.805955e-05	0.0007554158	0.0007098924	0.0002004442	7.481159e-05	0.0002971042	0.0005035253	0.0005051105	0.0002139177	0.0007839842	0.00091469	8.58842e-05	0.0002386091	0.0009122914	0.0004741884	0.0001842342	0.0002919116	0.0008681318	0.0008572628	0.0008827958	0.0005459334	0.0004850901	0.0006457435	0.0004428741	0.0008403528	0.0005676096	0.000321044	0.0008459071	0.000137681	0.0006749734	0.0006818253	0.0005791077	0.0003745392	0.0005969989	0.0006960577	0.0009044569	0.0006711202	0.0005426283	0.000499413	0.0007280122	0.0007893843	0.0003205634	0.0007385095	0.00091469	3.414631e-05	0.0003400642	0.00091469	0.0008853016	0.0001453093	0.0006975221	0.0007534118	0.0001447751	0.0003126344	0.0003635449	0.000904449	0.0001736367	0.0005543266	0.0008013483	1.234349e-05	0.0001452163	0.0003671184	9.130501e-05	8.94642e-05	0.0008618943	0.0007104074	0.0008407182	0.0005503115	0.0005620958	1.100607e-05	0.0005316185	0.0005381584	0.0001204446	0.0004743543	0.0002984124	5.550231e-05	0.0005925159	0.000542348	0.0002669114	0.0004845757	0.0002005158	0.0003723558	0.0001702575	0.0006638601	0.0001874461	2.685641e-05	0.0008592358	0.000516395	0.0003556879	0.000173616	
[...]
                    <PointData>
                    <DataArray Name="network | properties || pore._id" NumberOfComponents="1" type="Int32">0	1	2	3	4	5	6	7	8	9	10	11	12	13	14	15	16	17	18	19	20	21	22	23	24	25	26	27	28	29	30	31	32	33	34	35	36	37	38	39	40	41	42	43	44	45	46	47	48	49	50	51	52	53	54	55	56	57	58	59	60	61	62	63	64	65	66	67	68	69	70	71	72	73	74	75	76	77	78	79	80	81	82	83	84	85	86	87	88	89	90	91	92	93	94	95	96	97	98	99	100	101	102	103	104	105	106	107	108	109	110	111	112	113	114	115	116	117	118	119	120	121	122	123	124	125	126	127	128	129	130	131	132	133	134	135	136	137	138	139	140	141	142	143	144	145	146	147	148	149	150	151	152	153	154	155	156	157	158	159	160	161	162	163	164	165	166	167	168	169	170	171	172	173	174	175	176	177	178	179	180	181	182	183	184	185	186	187	188	189	190	191	192	193	194	195	196	197	198	199	200	201	202	203	204	205	206	207	208	209	210	211	212	213	214	215	216	217	218	219	220	221	222	223	224	225	226	227	228	229	230	231	232	233	234	235	236	237	238	239	240	241	242	243	244	245	246	247	248	249	250	251	252	253	254	255	256	257	258	259	260	261	262	263	264	265	266	267	268	269	270	271	272	273	274	275	276	277	278	279	280	281	282	283	284	285	286	287	288	289	290	291	292	293	294	295	296	297	298	299	300	301	302	303	304	305	306	307	308	309	310	311	312	313	314	315	316	317	318	319	320	321	322	323	324	325	326	327	328	329	330	331	332	333	334	335	336	337	338	339	340	341	342	343	344	345	346	347	348	349	350	351	352	353	354	355	356	357	358	359	360	361	362	363	364	365	366	367	368	369	370	371</DataArray>
			<DataArray Name="network | properties || pore.label" NumberOfComponents="1" type="Int32">0	1	2	3	4	5	6	7	8	9	10	11	12	13	14	15	16	17	18	19	20	21	22	23	24	25	26	27	28	29	30	31	32	33	34	35	36	37	38	39	40	41	42	43	44	45	46	47	48	49	50	51	52	53	54	55	56	57	58	59	60	61	62	63	64	65	66	67	68	69	70	71	72	73	74	75	76	77	78	79	80	81	82	83	84	85	86	87	88	89	90	91	92	93	94	95	96	97	98	99	100	101	102	103	104	105	106	107	108	109	110	111	112	113	114	115	116	117	118	119	120	121	122	123	124	125	126	127	128	129	130	131	132	133	134	135	136	137	138	139	140	141	142	143	144	145	146	147	148	149	150	151	152	153	154	155	156	157	158	159	160	161	162	163	164	165	166	167	168	169	170	171	172	173	174	175	176	177	178	179	180	181	182	183	184	185	186	187	188	189	190	191	192	193	194	195	196	197	198	199	200	201	202	203	204	205	206	207	208	209	210	211	212	213	214	215	216	217	218	219	220	221	222	223	224	225	226	227	228	229	230	231	232	233	234	235	236	237	238	239	240	241	242	243	244	245	246	247	248	249	250	251	252	253	254	255	256	257	258	259	260	261	262	263	264	265	266	267	268	269	270	271	272	273	274	275	276	277	278	279	280	281	282	283	284	285	286	287	288	289	290	291	292	293	294	295	296	297	298	299	300	301	302	303	304	305	306	307	308	309	310	311	312	313	314	315	316	317	318	319	320	321	322	323	324	325	326	327	328	329	330	331	332	333	334	335	336	337	338	339	340	341	342	343	344	345	346	347	348	349	350	351	352	353	354	355	356	357	358	359	360	361	362	363	364	365	366	367	368	369	370	371</DataArray>
			<DataArray Name="network | label || pore.all" NumberOfComponents="1" type="Int32">1	1	1	1	1	1	1	1	1	1	1	1	1	1	1	1	1	1	1	1	1	1	1	1	1	1	1	1	1	1	1	1	1	1	1	1	1	1	1	1	1	1	1	1	1	1	1	1	1	1	1	1	1	1	1	1	1	1	1	1	1	1	1	1	1	1	1	1	1	1	1	1	1	1	1	1	1	1	1	1	1	1	1	1	1	1	1	1	1	1	1	1	1	1	1	1	1	1	1	1	1	1	1	1	1	1	1	1	1	1	1	1	1	1	1	1	1	1	1	1	1	1	1	1	1	1	1	1	1	1	1	1	1	1	1	1	1	1	1	1	1	1	1	1	1	1	1	1	1	1	1	1	1	1	1	1	1	1	1	1	1	1	1	1	1	1	1	1	1	1	1	1	1	1	1	1	1	1	1	1	1	1	1	1	1	1	1	1	1	1	1	1	1	1	1	1	1	1	1	1	1	1	1	1	1	1	1	1	1	1	1	1	1	1	1	1	1	1	1	1	1	1	1	1	1	1	1	1	1	1	1	1	1	1	1	1	1	1	1	1	1	1	1	1	1	1	1	1	1	1	1	1	1	1	1	1	1	1	1	1	1	1	1	1	1	1	1	1	1	1	1	1	1	1	1	1	1	1	1	1	1	1	1	1	1	1	1	1	1	1	1	1	1	1	1	1	1	1	1	1	1	1	1	1	1	1	1	1	1	1	1	1	1	1	1	1	1	1	1	1	1	1	1	1	1	1	1	1	1	1	1	1	1	1	1	1	1	1	1	1	1	1	1	1	1	1	1	1	1	1	1	1	1	1	1	1	1	1	1	1	1	1	1	1	1	1	1	1	1	1	1	1</DataArray>
			<DataArray Name="network | properties || pore.volume" NumberOfComponents="1" type="Float64">6.421469e-12	3.890716e-12	2.819171e-12	2.042836e-12	2.82844e-12	9.570216e-13	1.798969e-12	2.105604e-12	2.278214e-12	1.567308e-12	1.135047e-12	3.57564e-13	6.142777e-13	1.571896e-12	8.957682e-13	6.492863e-13	2.819034e-13	2.482714e-13	9.424309e-13	7.738578e-13	2.795175e-13	2.162452e-13	1.960568e-13	3.941325e-13	3.944537e-13	4.310681e-13	3.800465e-13	7.969368e-13	5.841328e-13	1.691237e-13	8.159782e-13	3.964266e-13	7.30774e-13	6.522228e-13	4.295081e-13	3.503604e-13	2.859411e-13	3.7633e-13	7.146232e-13	1.302151e-13	3.63437e-13	3.888101e-13	1.771073e-13	1.4944e-13	6.25932e-13	3.843136e-13	4.019326e-13	3.592616e-13	4.67086e-13	1.965157e-13	3.444415e-13	2.557502e-13	5.244394e-13	5.042969e-13	4.759414e-13	1.97938e-13	2.691939e-13	2.340936e-13	2.507031e-13	3.454051e-13	6.186366e-13	3.625193e-13	1.888074e-13	2.141346e-13	1.11495e-13	3.609134e-13	2.354701e-13	8.593832e-14	2.124828e-13	2.274406e-13	6.151036e-13	3.885807e-13	3.770182e-13	4.056032e-14	2.472161e-13	1.532941e-13	1.61553e-13	2.545114e-13	2.625409e-13	2.85574e-13	3.343932e-13	3.715582e-13	1.866968e-13	2.053251e-13	3.409544e-13	7.800061e-14	1.537989e-13	1.325093e-13	2.406548e-13	1.331057e-13	1.542577e-13	4.590565e-13	2.323959e-13	1.218645e-13	2.331301e-13	1.513671e-13	1.814661e-13	1.192951e-13	3.012659e-13	2.448302e-13	3.783947e-13	2.496937e-13	3.343473e-13	2.481337e-13	8.983835e-14	1.030985e-13	2.893364e-13	1.161291e-13	2.154652e-13	1.477882e-13	1.304904e-13	1.267281e-13	3.128283e-13	2.923646e-13	1.579283e-13	1.739872e-13	1.018596e-13	2.352865e-13	1.667378e-13	1.737119e-13	2.11657e-13	1.132385e-13	1.300775e-13	5.937223e-14	1.473753e-13	3.488004e-13	1.434294e-13	2.100052e-13	9.337132e-14	9.043483e-14	1.239292e-13	1.340693e-13	2.395536e-13	2.14364e-13	1.351246e-13	1.038785e-13	8.102887e-14	2.309277e-13	6.446521e-14	1.192033e-13	7.221939e-14	2.977788e-14	1.324175e-13	1.008961e-13	1.716931e-13	1.338399e-13	1.07595e-13	5.859222e-14	1.420529e-13	1.359964e-13	6.680523e-14	9.864783e-14	9.465603e-14	5.028745e-14	1.146609e-13	2.500608e-13	1.446223e-13	9.006776e-14	1.238833e-13	7.951474e-14	2.312489e-14	1.14615e-13	6.478639e-14	5.170982e-14	7.212762e-14	1.76419e-13	4.712155e-14	8.001945e-14	5.895928e-14	2.168417e-13	1.011255e-13	1.172762e-13	1.579283e-13	1.465494e-13	9.699605e-14	1.177809e-13	7.634883e-14	1.111279e-13	1.000243e-13	1.280128e-13	7.48347e-14	1.417317e-13	9.97949e-14	8.157946e-14	1.065397e-13	7.969827e-14	7.102644e-14	7.85512e-14	6.611699e-14	7.529353e-14	1.906886e-13	8.350654e-14	8.717715e-14	3.918384e-14	9.915254e-14	5.932635e-14	8.580067e-14	7.887238e-14	9.814312e-14	1.671966e-13	8.869128e-14	1.058055e-13	7.010878e-14	5.767457e-14	1.570565e-13	8.029475e-14	1.621036e-13	1.413188e-14	1.484765e-13	5.822516e-14	7.098056e-14	8.35983e-14	7.157703e-14	5.07004e-14	6.753935e-14	6.66217e-14	5.859222e-14	8.185476e-14	7.809238e-14	8.419478e-14	6.359344e-14	6.102401e-14	7.905591e-14	1.030985e-13	1.13055e-13	6.285932e-14	7.951474e-14	3.519204e-14	4.101914e-14	4.19368e-14	4.707566e-14	4.799332e-14	8.263476e-14	6.496992e-14	1.450353e-13	4.423093e-14	6.221696e-14	5.115922e-14	2.716257e-14	2.968611e-14	3.739441e-14	6.460286e-14	7.240292e-14	2.688727e-14	5.14804e-14	6.006047e-14	7.529353e-14	5.900517e-14	4.64333e-14	4.514859e-14	5.14804e-14	3.922972e-14	4.124856e-14	3.510027e-14	1.409058e-13	5.909693e-14	5.900517e-14	1.241586e-13	5.180158e-14	6.189578e-14	3.808265e-14	8.162534e-14	6.226284e-14	4.914038e-14	4.914038e-14	6.377697e-14	2.151899e-14	5.602279e-14	4.046855e-14	1.499906e-13	6.042753e-14	2.303312e-14	1.137891e-14	8.203829e-14	3.473321e-14	2.789669e-14	6.015224e-14	1.679307e-14	2.193194e-14	3.844971e-14	3.399909e-14	6.464874e-14	3.959678e-14	2.927317e-14	9.438074e-14	4.528624e-14	3.142966e-14	1.394834e-14	3.500851e-14	7.465117e-14	4.574506e-14	1.168174e-13	7.533941e-14	3.808265e-14	1.688484e-14	1.362717e-14	2.399666e-14	7.478882e-14	5.845458e-14	8.901246e-15	3.817442e-14	1.527894e-14	4.225798e-14	2.762139e-14	2.064722e-14	2.629079e-14	2.509784e-14	6.340991e-14	3.248496e-14	5.437101e-14	2.477666e-14	4.037679e-14	2.184017e-14	5.872987e-15	2.408842e-14	1.518718e-14	3.037436e-14	1.982133e-14	3.097083e-14	1.463659e-14	1.69766e-14	2.220723e-14	8.350654e-15	1.225068e-14	3.766971e-14	1.00942e-14	8.396536e-15	1.445305e-14	1.862838e-14	9.084777e-15	3.257673e-15	7.020055e-15	1.000243e-14	1.312246e-14	8.901246e-15	2.936494e-14	2.844728e-15	1.399423e-14	1.238833e-14	2.046369e-14	9.176542e-15	7.800061e-15	3.624734e-15	9.268308e-15	2.615315e-15	6.744759e-15	1.683896e-14	4.725919e-15	3.120024e-15	1.165421e-14	3.487086e-15	6.148283e-15	1.605895e-15	1.101185e-15	3.900031e-15	3.945913e-15	2.110605e-15	1.69766e-15	2.073899e-14	2.385901e-15	2.20237e-15	2.294136e-15	1.330599e-15	4.588271e-15	1.192951e-15	3.670617e-15	1.514129e-15	8.258888e-16	2.569432e-15	2.385901e-15	7.845944e-15	1.560012e-15</DataArray>
			<DataArray Name="network | properties || pore.radius" NumberOfComponents="1" type="Float64">7.504782e-05	6.498847e-05	6.392911e-05	5.878803e-05	5.737898e-05	5.663419e-05	5.155978e-05	5.089826e-05	4.985988e-05	4.45534e-05	4.471882e-05	4.220511e-05	4.259833e-05	4.189744e-05	4.093286e-05	4.018262e-05	4.001086e-05	4.069157e-05	3.848188e-05	3.945078e-05	3.920792e-05	3.753979e-05	3.678622e-05	3.742416e-05	3.630199e-05	3.632142e-05	3.505334e-05	3.427261e-05	3.392005e-05	3.373496e-05	3.48631e-05	3.388367e-05	3.36246e-05	3.320387e-05	3.342696e-05	3.205419e-05	3.200794e-05	3.138942e-05	3.232148e-05	3.111197e-05	3.18384e-05	3.152223e-05	3.018429e-05	3.028967e-05	3.014151e-05	3.037316e-05	3.10925e-05	3.080304e-05	3.086732e-05	2.998839e-05	2.998521e-05	2.948321e-05	2.905888e-05	2.899209e-05	2.875872e-05	3.082049e-05	2.910896e-05	2.813736e-05	2.881749e-05	2.877518e-05	2.8815e-05	2.870948e-05	2.790688e-05	2.859943e-05	2.812192e-05	2.699707e-05	2.69816e-05	2.726701e-05	2.753037e-05	2.679279e-05	2.778734e-05	2.65674e-05	2.810779e-05	2.667195e-05	2.705907e-05	2.700139e-05	2.615442e-05	2.657558e-05	2.657582e-05	2.608864e-05	2.549875e-05	2.723805e-05	2.629278e-05	2.691201e-05	2.614957e-05	2.554581e-05	2.538994e-05	2.541742e-05	2.511283e-05	2.557681e-05	2.553756e-05	2.71654e-05	2.518789e-05	2.472048e-05	2.469553e-05	2.432662e-05	2.405284e-05	2.389612e-05	2.365683e-05	2.371223e-05	2.369741e-05	2.518158e-05	2.469786e-05	2.509464e-05	2.545241e-05	2.371485e-05	2.505925e-05	2.4708e-05	2.328784e-05	2.29371e-05	2.45634e-05	2.346151e-05	2.399038e-05	2.559131e-05	2.402956e-05	2.360164e-05	2.335316e-05	2.258875e-05	2.339804e-05	2.386174e-05	2.27665e-05	2.331097e-05	2.273855e-05	2.230989e-05	2.286938e-05	2.204515e-05	2.222059e-05	2.323274e-05	2.199309e-05	2.280641e-05	2.198979e-05	2.276594e-05	2.325984e-05	2.276547e-05	2.15211e-05	2.144434e-05	2.188868e-05	2.186369e-05	2.14977e-05	2.319088e-05	2.169953e-05	2.172586e-05	2.346048e-05	2.194051e-05	2.114959e-05	2.189168e-05	2.212598e-05	2.042495e-05	2.187507e-05	2.116345e-05	2.117854e-05	2.160594e-05	2.097739e-05	2.052183e-05	2.130696e-05	2.56122e-05	2.066517e-05	2.07012e-05	2.139995e-05	2.103937e-05	1.985305e-05	2.005488e-05	1.976125e-05	2.036164e-05	2.086788e-05	2.140882e-05	2.032278e-05	1.98849e-05	1.957711e-05	2.063084e-05	1.920716e-05	1.897433e-05	2.164812e-05	1.950513e-05	1.897934e-05	1.968108e-05	1.952979e-05	1.968092e-05	1.965534e-05	2.021862e-05	2.02287e-05	1.954737e-05	1.922596e-05	1.93665e-05	1.939051e-05	1.883219e-05	1.996845e-05	2.038746e-05	1.946527e-05	1.926233e-05	1.95374e-05	1.888384e-05	1.922015e-05	1.880006e-05	1.797744e-05	1.825414e-05	1.845841e-05	1.857733e-05	1.89162e-05	1.923567e-05	1.852471e-05	1.875386e-05	1.893845e-05	1.886286e-05	2.003275e-05	1.926397e-05	2.012204e-05	1.90428e-05	1.856195e-05	1.890639e-05	1.79739e-05	1.722048e-05	1.831284e-05	2.018794e-05	1.711287e-05	1.80639e-05	1.809038e-05	1.82911e-05	1.823573e-05	2.034774e-05	1.814933e-05	1.726911e-05	1.808463e-05	1.713724e-05	1.851504e-05	1.826076e-05	1.838939e-05	1.768896e-05	1.692788e-05	1.588951e-05	1.600462e-05	1.684392e-05	1.665231e-05	1.594578e-05	1.875372e-05	1.624656e-05	1.624435e-05	1.643163e-05	1.728031e-05	1.63818e-05	1.612958e-05	1.571887e-05	1.658364e-05	1.526927e-05	1.682292e-05	1.633124e-05	1.678266e-05	1.533592e-05	1.505442e-05	1.508706e-05	1.733903e-05	1.508817e-05	1.650585e-05	1.503114e-05	1.859016e-05	1.61529e-05	1.477527e-05	1.603857e-05	1.543408e-05	1.527517e-05	1.637007e-05	1.608271e-05	1.585563e-05	1.532938e-05	1.545386e-05	1.621595e-05	1.575283e-05	1.524728e-05	1.520896e-05	1.765689e-05	1.495525e-05	1.473847e-05	1.418882e-05	1.415913e-05	1.498081e-05	1.503123e-05	1.478645e-05	1.414991e-05	1.469951e-05	1.530773e-05	1.538911e-05	1.474071e-05	1.328629e-05	1.349187e-05	1.538722e-05	1.427447e-05	1.464898e-05	1.529371e-05	1.329579e-05	1.846719e-05	1.479555e-05	1.538345e-05	1.483101e-05	1.377512e-05	1.401588e-05	1.436461e-05	1.430214e-05	1.438644e-05	1.877393e-05	1.293836e-05	1.344674e-05	1.263604e-05	1.406192e-05	1.300653e-05	1.210965e-05	1.244106e-05	1.280836e-05	1.629428e-05	1.359755e-05	1.342096e-05	1.239601e-05	1.477885e-05	1.277164e-05	1.270565e-05	1.261014e-05	1.335662e-05	1.226469e-05	1.093786e-05	1.091816e-05	1.183403e-05	1.139053e-05	1.077568e-05	1.121048e-05	1.154417e-05	1.400489e-05	1.011322e-05	1.067652e-05	1.078669e-05	1.055838e-05	9.498896e-06	1.007205e-05	8.283361e-06	1.00144e-05	1.166942e-05	9.990207e-06	1.003682e-05	9.912914e-06	7.919548e-06	8.271304e-06	1.126668e-05	8.520949e-06	8.553331e-06	6.172175e-06	9.130971e-06	8.072548e-06	8.518199e-06	8.202746e-06	7.673073e-06	5.949382e-06	7.673073e-06	6.550154e-06	5.754698e-06	6.98279e-06	5.755057e-06	7.041945e-06	6.303154e-06	4.364012e-06	5.006871e-06	1.117729e-05	5.009618e-06	5.022247e-06	6.023542e-06	5.290096e-06	6.158854e-06	4.358427e-06	5.011297e-06	5.290247e-06	6.023532e-06	5.01055e-06	6.146999e-06	6.713817e-06	5.007667e-06</DataArray>
			<DataArray Name="network | properties || pore.shape_factor" NumberOfComponents="1" type="Float64">0.0349822	0.03715211	0.0350763	0.04094637	0.02819687	0.03978009	0.03008342	0.02302489	0.03662959	0.03032067	0.03800118	0.03988895	0.03310802	0.02968301	0.02592981	0.037466	0.0625	0.03660215	0.03563335	0.03318909	0.02689735	0.03899073	0.02600727	0.02334359	0.0436603	0.03647446	0.03165567	0.03524952	0.04747146	0.01944059	0.02542991	0.03406745	0.04014053	0.02993174	0.03951942	0.03183197	0.03457982	0.03652478	0.03628591	0.04753882	0.03490245	0.03661209	0.02311311	0.02704896	0.04750137	0.03737862	0.03051862	0.03391475	0.03956871	0.04320176	0.03736179	0.04281685	0.03818994	0.0625	0.04801629	0.04243944	0.03723515	0.04172226	0.03533194	0.04641621	0.0358665	0.03441752	0.04093717	0.01834087	0.03722803	0.04591147	0.04219412	0.04528116	0.04220966	0.02789505	0.04322187	0.03647779	0.03118587	0.03858336	0.04561407	0.03825873	0.03529504	0.0401304	0.0625	0.04047263	0.04103469	0.04036562	0.02897787	0.0625	0.03220481	0.0625	0.04127743	0.02666053	0.03576229	0.03397479	0.03834644	0.03799567	0.03213816	0.04722442	0.02895372	0.0625	0.0625	0.03965432	0.04587457	0.03844964	0.0295245	0.04538122	0.0334612	0.03652515	0.03923329	0.03676038	0.0625	0.03280257	0.04066019	0.04424282	0.0625	0.03344564	0.03576609	0.03102607	0.04470926	0.03552508	0.03868138	0.0625	0.04418547	0.04426685	0.03663828	0.02989239	0.02865127	0.0336767	0.03243	0.04777596	0.03521046	0.03307096	0.0412421	0.03615818	0.03013784	0.04172289	0.04690304	0.0625	0.03767392	0.04516215	0.03710822	0.04479458	0.0281292	0.03728994	0.03139282	0.04166721	0.0376565	0.03921313	0.04668863	0.02603423	0.04068412	0.03809062	0.0457264	0.02597337	0.04712078	0.04265722	0.04502553	0.04373091	0.03890371	0.03961354	0.03157124	0.03791638	0.03331531	0.0625	0.02544312	0.04337377	0.0625	0.02885425	0.02236968	0.03820109	0.04513536	0.0625	0.02604031	0.04588574	0.0625	0.0625	0.02316636	0.0625	0.02722659	0.03169548	0.0625	0.04313029	0.02894842	0.0415931	0.0625	0.03557485	0.04088547	0.04688385	0.04335903	0.03856302	0.03504975	0.0625	0.03798056	0.04006077	0.03365586	0.03659843	0.02743265	0.04630618	0.02997718	0.04420331	0.02563079	0.038164	0.041759	0.0298696	0.0366474	0.0625	0.03902844	0.04692425	0.0283616	0.03914823	0.03031422	0.04323751	0.03837981	0.04155954	0.02310674	0.0625	0.03484636	0.03883737	0.0625	0.03897592	0.0625	0.04811823	0.03737445	0.03435686	0.07957747154594767	0.0625	0.0625	0.03676394	0.0625	0.04121922	0.0625	0.01616425	0.02838813	0.0625	0.03009667	0.04225695	0.02474757	0.0625	0.0303666	0.04365087	0.04372834	0.0625	0.0255006	0.0275947	0.0625	0.0625	0.0625	0.04802008	0.03566	0.03685867	0.04754944	0.03344506	0.07957747154594767	0.03104735	0.0625	0.04386534	0.03578189	0.0625	0.0625	0.0625	0.03988517	0.02857848	0.0625	0.02267444	0.0625	0.0625	0.03949642	0.03257485	0.04499853	0.04266391	0.04301373	0.03312841	0.03238368	0.0625	0.0625	0.03973392	0.02695709	0.0625	0.0625	0.0625	0.0625	0.0392667	0.01774377	0.0351723	0.0625	0.04160516	0.04730193	0.03940219	0.0625	0.07957747154594767	0.04590215	0.03520816	0.03395322	0.0625	0.04252861	0.02735944	0.03814643	0.03308029	0.04754421	0.03510001	0.0625	0.02954193	0.04034581	0.03200269	0.0625	0.0625	0.0625	0.04496205	0.0625	0.03615417	0.04208938	0.0278247	0.03518746	0.04439518	0.07957747154594767	0.0625	0.04338079	0.03101901	0.0442695	0.0625	0.0625	0.0625	0.07957747154594767	0.0625	0.07957747154594767	0.0625	0.01983459	0.0625	0.0625	0.0625	0.07957747154594767	0.0625	0.0625	0.04247225	0.0625	0.04612537	0.0625	0.0625	0.0625	0.0125	0.02629414	0.0625	0.02808192	0.04641204	0.0625	0.0625	0.03979727	0.04164554	0.0165496	0.0461921	0.07957747154594767	0.02527493	0.02094895	0.03125	0.07957747154594767	0.03125	0.01536434	0.02549508	0.0625	0.03979727	0.02282038	0.07957747154594767	0.0625	0.04752289	0.07957747154594767	0.01264452	0.07957747154594767	0.0625	0.07957747154594767	0.03125	0.0625	0.03359113	0.01041667	0.0625	0.03529866	0.0625</DataArray>
			<DataArray Name="network | properties || pore.clay_volume" NumberOfComponents="1" type="Float64">0.0	0.0	0.0	0.0	0.0	0.0	0.0	0.0	0.0	0.0	0.0	0.0	0.0	0.0	0.0	0.0	0.0	0.0	0.0	0.0	0.0	0.0	0.0	0.0	0.0	0.0	0.0	0.0	0.0	0.0	0.0	0.0	0.0	0.0	0.0	0.0	0.0	0.0	0.0	0.0	0.0	0.0	0.0	0.0	0.0	0.0	0.0	0.0	0.0	0.0	0.0	0.0	0.0	0.0	0.0	0.0	0.0	0.0	0.0	0.0	0.0	0.0	0.0	0.0	0.0	0.0	0.0	0.0	0.0	0.0	0.0	0.0	0.0	0.0	0.0	0.0	0.0	0.0	0.0	0.0	0.0	0.0	0.0	0.0	0.0	0.0	0.0	0.0	0.0	0.0	0.0	0.0	0.0	0.0	0.0	0.0	0.0	0.0	0.0	0.0	0.0	0.0	0.0	0.0	0.0	0.0	0.0	0.0	0.0	0.0	0.0	0.0	0.0	0.0	0.0	0.0	0.0	0.0	0.0	0.0	0.0	0.0	0.0	0.0	0.0	0.0	0.0	0.0	0.0	0.0	0.0	0.0	0.0	0.0	0.0	0.0	0.0	0.0	0.0	0.0	0.0	0.0	0.0	0.0	0.0	0.0	0.0	0.0	0.0	0.0	0.0	0.0	0.0	0.0	0.0	0.0	0.0	0.0	0.0	0.0	0.0	0.0	0.0	0.0	0.0	0.0	0.0	0.0	0.0	0.0	0.0	0.0	0.0	0.0	0.0	0.0	0.0	0.0	0.0	0.0	0.0	0.0	0.0	0.0	0.0	0.0	0.0	0.0	0.0	0.0	0.0	0.0	0.0	0.0	0.0	0.0	0.0	0.0	0.0	0.0	0.0	0.0	0.0	0.0	0.0	0.0	0.0	0.0	0.0	0.0	0.0	0.0	0.0	0.0	0.0	0.0	0.0	0.0	0.0	0.0	0.0	0.0	0.0	0.0	0.0	0.0	0.0	0.0	0.0	0.0	0.0	0.0	0.0	0.0	0.0	0.0	0.0	0.0	0.0	0.0	0.0	0.0	0.0	0.0	0.0	0.0	0.0	0.0	0.0	0.0	0.0	0.0	0.0	0.0	0.0	0.0	0.0	0.0	0.0	0.0	0.0	0.0	0.0	0.0	0.0	0.0	0.0	0.0	0.0	0.0	0.0	0.0	0.0	0.0	0.0	0.0	0.0	0.0	0.0	0.0	0.0	0.0	0.0	0.0	0.0	0.0	0.0	0.0	0.0	0.0	0.0	0.0	0.0	0.0	0.0	0.0	0.0	0.0	0.0	0.0	0.0	0.0	0.0	0.0	0.0	0.0	0.0	0.0	0.0	0.0	0.0	0.0	0.0	0.0	0.0	0.0	0.0	0.0	0.0	0.0	0.0	0.0	0.0	0.0	0.0	0.0	0.0	0.0	0.0	0.0	0.0	0.0	0.0	0.0	0.0	0.0	0.0	0.0	0.0	0.0	0.0	0.0	0.0	0.0	0.0	0.0	0.0	0.0	0.0	0.0	0.0	0.0	0.0	0.0	0.0	0.0	0.0	0.0	0.0	0.0	0.0	0.0	0.0	0.0	0.0	0.0	0.0	0.0	0.0	0.0	0.0	0.0</DataArray>